# vtk DataFile Version 4.2
vtk output
ASCII
DATASET POLYDATA
FIELD FieldData 8
avtOriginalBounds 1 6 double
566814 571962 144473.70312 148257.70312 -2500 0 
VolumeDependent 1 1 bit
0 
avtOriginalBounds2 1 6 double
566814 571962 144473.70312 148257.70312 -2500 0 
VolumeDependent2 1 1 bit
0 
MeshName 1 1 string
Mesh

CYCLE 1 1 int
0 
TIME 1 1 double
20 
VisItExpressions 1 0 string

POINTS 107 float
569387 146370 -1.4708 569387 146370 -1.47322 569387 146370 -1.45152 
569419 146365 -2.52057 569419 146365 -2.7754 569418 146365 -2.6359 
569387 146370 -2.57333 569387 146370 -2.45567 569387 146370 -2.55035 
569419 146365 -2.58742 569419 146365 -2.52043 569387 146371 -1.625 
569387 146370 -1.44057 569387 146370 -1.48941 569419 146365 -2.75923 
569419 146365 -2.79418 569387 146370 -2.318 569387 146370 -2.30426 
569387 146370 -2.46737 569386 146371 -1.86905 569386 146371 -1.67798 
569386 146370 -1.81286 569386 146370 -2.05929 569387 146370 -1.56683 
569387 146370 -1.4416 569387 146370 -1.55059 569387 146370 -1.48584 
569386 146370 -2.13693 569387 146370 -2.18734 569386 146370 -2.1725 
569387 146370 -2.33674 569387 146370 -2.43614 569387 146370 -2.15098 
569387 146370 -2.53902 569387 146370 -1.50996 569387 146370 -1.70889 
569387 146370 -1.59264 569419 146365 -2.5467 569418 146365 -2.66173 
569419 146365 -2.65893 569387 146370 -2.125 569387 146370 -2.12121 
569387 146370 -2.13444 569387 146371 -2.125 569387 146371 -2.12685 
569387 146370 -2.18602 569387 146370 -2.60327 569387 146370 -2.55036 
569387 146370 -2.55589 569387 146371 -1.53826 569387 146371 -2.125 
569387 146370 -2.30589 569387 146370 -1.9102 569387 146370 -2.16178 
569386 146370 -2.375 569387 146370 -2.46507 569387 146370 -2.53439 
569418 146366 -2.50532 569419 146365 -2.55061 569419 146366 -2.77076 
569419 146366 -2.66127 569418 146366 -2.37236 569387 146371 -1.77663 
569387 146370 -1.70512 569387 146370 -1.62441 569387 146370 -1.62281 
569387 146370 -1.49365 569387 146370 -1.62201 569387 146370 -1.54414 
569387 146370 -1.4568 569419 146365 -2.52496 569387 146370 -1.62379 
569419 146365 -2.77071 569386 146370 -2.16299 569386 146370 -2.13895 
569386 146370 -2.14736 569386 146370 -2.06926 569386 146370 -2.08611 
569387 146370 -1.8781 569387 146370 -1.77362 569387 146370 -2.45983 
569387 146370 -2.49974 569387 146370 -1.62404 569387 146370 -1.62542 
569387 146370 -2.28327 569386 146370 -2.11721 569387 146370 -2.41885 
569387 146370 -2.02356 569387 146370 -2.07985 569387 146370 -1.81615 
569387 146370 -1.92755 569387 146370 -1.85924 569387 146370 -2.45199 
569387 146370 -1.62532 569386 146370 -2.09475 569387 146370 -2.15984 
569387 146370 -2.03468 569387 146370 -2.19463 569387 146370 -2.09998 
569387 146370 -2.12652 569387 146370 -2.10857 569387 146370 -2.46461 
569387 146370 -2.43608 569387 146370 -1.62719 569387 146370 -1.56215 
569387 146370 -2.13938 569387 146370 -1.48337 
POLYGONS 206 824
3 0 1 2 
3 3 4 5 
3 6 7 8 
3 3 9 10 
3 11 12 13 
3 14 15 4 
3 16 17 7 
3 7 17 18 
3 19 20 21 
3 19 21 22 
3 23 24 12 
3 2 25 26 
3 27 28 29 
3 30 31 32 
3 6 33 7 
3 34 26 35 
3 35 26 36 
3 37 5 38 
3 3 37 9 
3 39 3 10 
3 40 41 42 
3 43 44 45 
3 6 46 47 
3 31 48 8 
3 23 12 49 
3 50 51 52 
3 27 53 28 
3 2 1 24 
3 24 1 13 
3 54 55 56 
3 37 57 58 
3 59 60 61 
3 23 62 63 
3 0 64 65 
3 0 66 64 
3 67 13 1 
3 10 9 58 
3 20 68 21 
3 2 24 69 
3 3 70 37 
3 65 64 71 
3 72 14 60 
3 73 74 22 
3 75 76 21 
3 75 21 77 
3 11 68 20 
3 11 13 68 
3 39 10 58 
3 39 14 3 
3 43 19 44 
3 74 45 44 
3 52 78 79 
3 48 80 81 
3 11 49 12 
3 67 82 83 
3 83 21 68 
3 83 68 67 
3 3 14 4 
3 37 58 9 
3 84 43 45 
3 6 47 33 
3 85 75 77 
3 77 21 83 
3 37 70 5 
3 45 86 81 
3 45 81 84 
3 31 51 80 
3 31 80 48 
3 87 16 88 
3 88 16 53 
3 79 36 25 
3 25 36 26 
3 85 27 75 
3 62 43 50 
3 42 18 17 
3 13 12 24 
3 19 43 62 
3 19 62 11 
3 89 35 90 
3 90 35 91 
3 54 92 86 
3 77 83 93 
3 77 93 85 
3 19 94 44 
3 0 2 26 
3 4 15 5 
3 30 32 51 
3 95 32 8 
3 8 32 31 
3 96 97 90 
3 84 81 80 
3 27 85 88 
3 25 2 79 
3 79 2 69 
3 32 98 52 
3 32 52 51 
3 11 20 19 
3 22 21 76 
3 22 76 73 
3 38 59 57 
3 23 63 24 
3 51 31 30 
3 67 64 82 
3 79 69 63 
3 63 69 24 
3 51 50 80 
3 73 54 86 
3 73 86 45 
3 64 67 71 
3 42 41 99 
3 74 44 94 
3 96 100 40 
3 96 91 100 
3 78 52 98 
3 75 27 29 
3 29 55 54 
3 29 54 75 
3 33 101 28 
3 101 55 28 
3 28 55 29 
3 33 47 101 
3 101 47 55 
3 102 16 33 
3 33 16 7 
3 33 28 102 
3 28 53 102 
3 102 53 16 
3 41 98 99 
3 56 55 46 
3 46 55 47 
3 18 8 7 
3 80 50 43 
3 80 43 84 
3 62 50 52 
3 62 52 63 
3 52 79 63 
3 38 5 15 
3 3 5 70 
3 36 79 35 
3 13 67 68 
3 74 73 45 
3 38 15 59 
3 74 94 22 
3 19 22 94 
3 73 76 54 
3 75 54 76 
3 64 93 83 
3 32 42 99 
3 6 8 48 
3 11 62 49 
3 62 23 49 
3 37 38 57 
3 64 83 82 
3 42 32 95 
3 72 15 14 
3 72 59 15 
3 90 97 87 
3 87 97 16 
3 96 90 91 
3 27 88 53 
3 87 88 90 
3 88 103 90 
3 90 103 89 
3 93 64 103 
3 85 93 103 
3 85 103 88 
3 104 34 89 
3 89 34 35 
3 89 103 104 
3 66 34 104 
3 104 103 64 
3 104 64 66 
3 96 40 105 
3 96 105 97 
3 105 16 97 
3 17 105 42 
3 17 16 105 
3 40 42 105 
3 41 40 100 
3 98 41 100 
3 79 98 100 
3 79 100 35 
3 100 91 35 
3 98 79 78 
3 18 42 95 
3 18 95 8 
3 98 32 99 
3 59 61 57 
3 66 106 34 
3 0 34 106 
3 0 106 66 
3 34 0 26 
3 58 57 61 
3 65 71 67 
3 65 1 0 
3 65 67 1 
3 92 54 56 
3 6 48 46 
3 48 81 56 
3 48 56 46 
3 92 56 86 
3 81 86 56 
3 72 60 59 
3 58 61 60 
3 39 60 14 
3 39 58 60 

CELL_DATA 206
FIELD FieldData 1
ElementBlock 1 206 float
1 1 1 1 1 1 1 1 1 
1 1 1 1 1 1 1 1 1 
1 1 1 1 1 1 1 1 1 
1 1 1 1 1 1 1 1 1 
1 1 1 1 1 1 1 1 1 
1 1 1 1 1 1 1 1 1 
1 1 1 1 1 1 1 1 1 
1 1 1 1 1 1 1 1 1 
1 1 1 1 1 1 1 1 1 
1 1 1 1 1 1 1 1 1 
1 1 1 1 1 1 1 1 1 
1 1 1 1 1 1 1 1 1 
1 1 1 1 1 1 1 1 1 
1 1 1 1 1 1 1 1 1 
1 1 1 1 1 1 1 1 1 
1 1 1 1 1 1 1 1 1 
1 1 1 1 1 1 1 1 1 
1 1 1 1 1 1 1 1 1 
1 1 1 1 1 1 1 1 1 
1 1 1 1 1 1 1 1 1 
1 1 1 1 1 1 1 1 1 
1 1 1 1 1 1 1 1 1 
1 1 1 1 1 1 1 1 
POINT_DATA 107
SCALARS cmfe0 float
LOOKUP_TABLE default
0.7 0.7 0.7 0.7 0.7 0.7 0.7 0.7 0.7 
0.7 0.7 0.7 0.7 0.7 0.7 0.7 0.7 0.7 
0.7 0.7 0.7 0.7 0.7 0.7 0.7 0.7 0.7 
0.7 0.7 0.7 0.7 0.7 0.7 0.7 0.7 0.7 
0.7 0.7 0.7 0.7 0.7 0.7 0.7 0.7 0.7 
0.7 0.7 0.7 0.7 0.7 0.7 0.7 0.7 0.7 
0.7 0.7 0.7 0.7 0.7 0.7 0.7 0.7 0.7 
0.7 0.7 0.7 0.7 0.7 0.7 0.7 0.7 0.7 
0.7 0.7 0.7 0.7 0.7 0.7 0.7 0.7 0.7 
0.7 0.7 0.7 0.7 0.7 0.7 0.7 0.7 0.7 
0.7 0.7 0.7 0.7 0.7 0.7 0.7 0.7 0.7 
0.7 0.7 0.7 0.7 0.7 0.7 0.7 0.7 
