# vtk DataFile Version 4.2
vtk output
ASCII
DATASET POLYDATA
FIELD FieldData 8
avtOriginalBounds 1 6 double
566814 571962 144473.70312 148257.70312 -2500 0 
VolumeDependent 1 1 bit
0 
avtOriginalBounds2 1 6 double
566814 571962 144473.70312 148257.70312 -2500 0 
VolumeDependent2 1 1 bit
0 
MeshName 1 1 string
Mesh

CYCLE 1 1 int
0 
TIME 1 1 double
19 
VisItExpressions 1 0 string

POINTS 41 float
569421 146365 0 569420 146365 -0.218765 569420 146365 -0.764534 
569421 146364 0 569421 146365 -0.265143 569361 146369 -1.11974 
569360 146369 -0.971017 569361 146369 -1.00946 569361 146369 0 
569361 146370 -0.541045 569361 146369 0 569361 146369 -0.734202 
569361 146369 -0.946745 569361 146369 -0.944094 569361 146369 -0.190962 
569361 146369 -0.919016 569361 146369 -0.956751 569360 146370 0 
569361 146370 -0.414556 569361 146370 0 569360 146369 -0.825054 
569360 146369 -0.708994 569361 146370 0 569363 146365 0 
569363 146365 -0.059149 569363 146365 -0.164536 569420 146365 0 
569420 146365 -0.277981 569360 146369 -0.66523 569361 146369 0 
569360 146370 0 569363 146365 0 569363 146365 0 
569363 146365 0 569420 146365 0 569420 146364 0 
569420 146365 0 569363 146365 0 569363 146365 0 
569363 146365 -0.11331 569363 146365 0 
POLYGONS 56 224
3 0 1 2 
3 3 0 4 
3 5 6 7 
3 8 9 10 
3 7 11 12 
3 4 0 2 
3 13 12 14 
3 12 11 14 
3 3 4 2 
3 9 13 14 
3 9 14 10 
3 13 5 12 
3 7 6 15 
3 6 5 16 
3 5 7 12 
3 17 18 19 
3 20 21 15 
3 7 21 11 
3 19 18 9 
3 22 9 8 
3 22 19 9 
3 23 24 25 
3 21 7 15 
3 26 27 2 
3 27 3 2 
3 6 20 15 
3 16 5 13 
3 18 16 13 
3 18 13 9 
3 28 20 6 
3 28 6 16 
3 17 28 16 
3 17 16 18 
3 11 21 14 
3 29 14 21 
3 29 10 14 
3 29 21 20 
3 29 20 30 
3 17 20 28 
3 17 30 20 
3 31 32 24 
3 32 33 24 
3 26 2 34 
3 3 27 35 
3 27 26 35 
3 2 1 34 
3 24 33 25 
3 36 34 1 
3 0 36 1 
3 23 31 24 
3 37 38 39 
3 33 37 39 
3 39 38 25 
3 33 39 25 
3 38 40 25 
3 40 23 25 

CELL_DATA 56
FIELD FieldData 1
ElementBlock 1 56 float
1 1 1 1 1 1 1 1 1 
1 1 1 1 1 1 1 1 1 
1 1 1 1 1 1 1 1 1 
1 1 1 1 1 1 1 1 1 
1 1 1 1 1 1 1 1 1 
1 1 1 1 1 1 1 1 1 
1 1 
POINT_DATA 41
SCALARS cmfe0 float
LOOKUP_TABLE default
0.5 0.5 0.5 0.5 0.5 0.5 0.5 0.5 0.5 
0.5 0.5 0.5 0.5 0.5 0.5 0.5 0.5 0.5 
0.5 0.5 0.5 0.5 0.5 0.5 0.5 0.5 0.5 
0.5 0.5 0.5 0.5 0.5 0.5 0.5 0.5 0.5 
0.5 0.5 0.5 0.5 0.5 
